
Predictions were generated on 27-May-2018 at 19:42:41 using FAST (v8.16.00a-bjj, 27-Jul-2016), compiled as a DLL S-Function for Simulink as a 64-bit application using single precision
 linked with  NWTC Subroutine Library (v2.09.00, 23-Jul-2016); ElastoDyn (v1.04.00a-bjj, 26-Jul-2016); InflowWind (v3.03.00, 26-Jul-2016); AeroDyn (v15.03.00, 27-Jul-2016); ServoDyn (v1.06.00a-bjj, 26-Jul-2016)

Description from the FAST input file: FAST Certification Test #12: WindPACT 1.5 MW Baseline with many DOFs with VS and VP and ECD wind.

Time      	Wind1VelX 	Wind1VelY 	Wind1VelZ 	LSSTipVxa 	BldPitch1 	BldPitch2 	GenSpeed  	RotTorq   	RotPwr    	HSShftTq  	RotAccel  	GenAccel  	LSSTipP   	LSSGagP   	LSSGagVxa 	RtSkew    	GenTq     	BlPitchC1 	GenPwr    
(s)       	(m/s)     	(m/s)     	(m/s)     	(rpm)     	(deg)     	(deg)     	(rpm)     	(kN·m)    	(kW)      	(kN·m)    	(deg/s^2) 	(deg/s^2) 	(deg)     	(deg)     	(rpm)     	(deg)     	(kN·m)    	(deg)     	(kW)      
    5.0000	 1.180E+01	 0.000E+00	 0.000E+00	-1.626E+00	 2.000E+00	 2.000E+00	-1.430E+02	 6.642E+02	-1.131E+02	 7.551E+00	-1.200E+01	-1.054E+03	 5.280E+01	 5.279E+01	-1.626E+00	 5.018E+00	 8.526E+00	 2.000E+00	-1.277E+02
    5.0500	 1.180E+01	 0.000E+00	 0.000E+00	-1.726E+00	 2.000E+00	 2.000E+00	-1.518E+02	 6.638E+02	-1.200E+02	 7.547E+00	-1.202E+01	-1.058E+03	 5.230E+01	 5.229E+01	-1.726E+00	 5.008E+00	 8.526E+00	 2.000E+00	-1.355E+02
    5.1000	 1.180E+01	 0.000E+00	 0.000E+00	-1.826E+00	 2.000E+00	 2.000E+00	-1.606E+02	 6.639E+02	-1.269E+02	 7.547E+00	-1.202E+01	-1.058E+03	 5.176E+01	 5.176E+01	-1.826E+00	 4.989E+00	 8.526E+00	 2.000E+00	-1.434E+02
    5.1500	 1.180E+01	 0.000E+00	 0.000E+00	-1.926E+00	 2.000E+00	 2.000E+00	-1.694E+02	 6.643E+02	-1.340E+02	 7.552E+00	-1.197E+01	-1.053E+03	 5.120E+01	 5.119E+01	-1.926E+00	 4.968E+00	 8.526E+00	 2.000E+00	-1.513E+02
    5.2000	 1.180E+01	 0.000E+00	 0.000E+00	-2.025E+00	 2.000E+00	 2.000E+00	-1.782E+02	 6.645E+02	-1.409E+02	 7.554E+00	-1.194E+01	-1.050E+03	 5.061E+01	 5.060E+01	-2.025E+00	 4.953E+00	 8.526E+00	 2.000E+00	-1.591E+02
    5.2500	 1.180E+01	 0.000E+00	 0.000E+00	-2.125E+00	 2.000E+00	 2.000E+00	-1.869E+02	 6.644E+02	-1.478E+02	 7.552E+00	-1.196E+01	-1.052E+03	 4.999E+01	 4.998E+01	-2.125E+00	 4.947E+00	 8.526E+00	 2.000E+00	-1.669E+02
    5.3000	 1.180E+01	 0.000E+00	 0.000E+00	-2.225E+00	 2.000E+00	 2.000E+00	-1.957E+02	 6.640E+02	-1.547E+02	 7.549E+00	-1.200E+01	-1.056E+03	 4.933E+01	 4.933E+01	-2.225E+00	 4.952E+00	 8.526E+00	 2.000E+00	-1.747E+02
    5.3500	 1.180E+01	 0.000E+00	 0.000E+00	-2.325E+00	 2.000E+00	 2.000E+00	-2.045E+02	 6.640E+02	-1.617E+02	 7.549E+00	-1.200E+01	-1.056E+03	 4.865E+01	 4.864E+01	-2.325E+00	 4.964E+00	 8.526E+00	 2.000E+00	-1.826E+02
    5.4000	 1.180E+01	 0.000E+00	 0.000E+00	-2.425E+00	 2.000E+00	 2.000E+00	-2.133E+02	 6.643E+02	-1.687E+02	 7.552E+00	-1.196E+01	-1.052E+03	 4.794E+01	 4.793E+01	-2.425E+00	 4.981E+00	 8.526E+00	 2.000E+00	-1.904E+02
    5.4500	 1.180E+01	 0.000E+00	 0.000E+00	-2.524E+00	 2.000E+00	 2.000E+00	-2.220E+02	 6.645E+02	-1.756E+02	 7.554E+00	-1.194E+01	-1.051E+03	 4.720E+01	 4.719E+01	-2.524E+00	 4.999E+00	 8.526E+00	 2.000E+00	-1.983E+02
    5.5000	 1.180E+01	 0.000E+00	 0.000E+00	-2.624E+00	 2.000E+00	 2.000E+00	-2.308E+02	 6.643E+02	-1.825E+02	 7.552E+00	-1.197E+01	-1.053E+03	 4.642E+01	 4.642E+01	-2.624E+00	 5.013E+00	 8.526E+00	 2.000E+00	-2.061E+02
    5.5500	 1.180E+01	 0.000E+00	 0.000E+00	-2.724E+00	 2.000E+00	 2.000E+00	-2.396E+02	 6.640E+02	-1.894E+02	 7.549E+00	-1.200E+01	-1.056E+03	 4.562E+01	 4.562E+01	-2.724E+00	 5.018E+00	 8.526E+00	 2.000E+00	-2.139E+02
    5.6000	 1.180E+01	 0.000E+00	 0.000E+00	-2.824E+00	 2.000E+00	 2.000E+00	-2.484E+02	 6.641E+02	-1.964E+02	 7.550E+00	-1.199E+01	-1.055E+03	 4.479E+01	 4.478E+01	-2.824E+00	 5.015E+00	 8.526E+00	 2.000E+00	-2.218E+02
    5.6500	 1.180E+01	 0.000E+00	 0.000E+00	-2.923E+00	 2.000E+00	 2.000E+00	-2.572E+02	 6.646E+02	-2.034E+02	 7.555E+00	-1.193E+01	-1.049E+03	 4.393E+01	 4.392E+01	-2.923E+00	 5.006E+00	 8.526E+00	 2.000E+00	-2.296E+02
    5.7000	 1.180E+01	 0.000E+00	 0.000E+00	-3.023E+00	 2.000E+00	 2.000E+00	-2.659E+02	 6.649E+02	-2.105E+02	 7.559E+00	-1.188E+01	-1.045E+03	 4.304E+01	 4.303E+01	-3.023E+00	 4.996E+00	 8.526E+00	 2.000E+00	-2.374E+02
    5.7500	 1.180E+01	 0.000E+00	 0.000E+00	-3.122E+00	 2.000E+00	 2.000E+00	-2.746E+02	 6.648E+02	-2.173E+02	 7.558E+00	-1.189E+01	-1.046E+03	 4.211E+01	 4.211E+01	-3.122E+00	 4.990E+00	 8.526E+00	 2.000E+00	-2.452E+02
    5.8000	 1.180E+01	 0.000E+00	 0.000E+00	-3.221E+00	 2.000E+00	 2.000E+00	-2.833E+02	 6.645E+02	-2.241E+02	 7.554E+00	-1.193E+01	-1.050E+03	 4.116E+01	 4.116E+01	-3.221E+00	 4.990E+00	 8.526E+00	 2.000E+00	-2.530E+02
    5.8500	 1.180E+01	 0.000E+00	 0.000E+00	-3.320E+00	 2.000E+00	 2.000E+00	-2.921E+02	 6.645E+02	-2.310E+02	 7.554E+00	-1.194E+01	-1.050E+03	 4.018E+01	 4.018E+01	-3.320E+00	 4.997E+00	 8.526E+00	 2.000E+00	-2.608E+02
    5.9000	 1.180E+01	 0.000E+00	 0.000E+00	-3.420E+00	 2.000E+00	 2.000E+00	-3.008E+02	 6.648E+02	-2.381E+02	 7.558E+00	-1.189E+01	-1.046E+03	 3.917E+01	 3.916E+01	-3.420E+00	 5.011E+00	 8.526E+00	 2.000E+00	-2.686E+02
    5.9500	 1.180E+01	 0.000E+00	 0.000E+00	-3.519E+00	 2.000E+00	 2.000E+00	-3.095E+02	 6.653E+02	-2.451E+02	 7.563E+00	-1.183E+01	-1.041E+03	 3.813E+01	 3.812E+01	-3.519E+00	 5.026E+00	 8.526E+00	 2.000E+00	-2.763E+02
    6.0000	 1.180E+01	 0.000E+00	 0.000E+00	-3.617E+00	 2.000E+00	 2.000E+00	-3.182E+02	 6.653E+02	-2.520E+02	 7.564E+00	-1.182E+01	-1.040E+03	 3.706E+01	 3.705E+01	-3.617E+00	 5.040E+00	 8.526E+00	 2.000E+00	-2.841E+02
    6.0500	 1.180E+01	-1.545E-03	 0.000E+00	-3.716E+00	 2.000E+00	 2.000E+00	-3.268E+02	 6.651E+02	-2.588E+02	 7.561E+00	-1.185E+01	-1.043E+03	 3.596E+01	 3.595E+01	-3.716E+00	 5.047E+00	 8.526E+00	 2.000E+00	-2.918E+02
    6.1000	 1.180E+01	-3.090E-03	 0.000E+00	-3.815E+00	 2.000E+00	 2.000E+00	-3.355E+02	 6.649E+02	-2.656E+02	 7.558E+00	-1.188E+01	-1.045E+03	 3.483E+01	 3.482E+01	-3.815E+00	 5.048E+00	 8.526E+00	 2.000E+00	-2.996E+02
    6.1500	 1.181E+01	-7.729E-03	 0.000E+00	-3.914E+00	 2.000E+00	 2.000E+00	-3.443E+02	 6.650E+02	-2.725E+02	 7.559E+00	-1.187E+01	-1.044E+03	 3.367E+01	 3.366E+01	-3.914E+00	 5.042E+00	 8.526E+00	 2.000E+00	-3.074E+02
    6.2000	 1.181E+01	-1.237E-02	 0.000E+00	-4.012E+00	 2.000E+00	 2.000E+00	-3.529E+02	 6.653E+02	-2.795E+02	 7.563E+00	-1.183E+01	-1.041E+03	 3.248E+01	 3.248E+01	-4.012E+00	 5.035E+00	 8.526E+00	 2.000E+00	-3.151E+02
    6.2500	 1.182E+01	-2.012E-02	 0.000E+00	-4.111E+00	 2.000E+00	 2.000E+00	-3.616E+02	 6.655E+02	-2.865E+02	 7.565E+00	-1.180E+01	-1.038E+03	 3.126E+01	 3.126E+01	-4.111E+00	 5.030E+00	 8.526E+00	 2.000E+00	-3.229E+02
    6.3000	 1.183E+01	-2.788E-02	 0.000E+00	-4.209E+00	 2.000E+00	 2.000E+00	-3.703E+02	 6.654E+02	-2.933E+02	 7.565E+00	-1.181E+01	-1.039E+03	 3.002E+01	 3.001E+01	-4.209E+00	 5.030E+00	 8.526E+00	 2.000E+00	-3.306E+02
    6.3500	 1.185E+01	-3.887E-02	 0.000E+00	-4.308E+00	 2.000E+00	 2.000E+00	-3.789E+02	 6.653E+02	-3.001E+02	 7.564E+00	-1.182E+01	-1.040E+03	 2.874E+01	 2.873E+01	-4.308E+00	 5.036E+00	 8.526E+00	 2.000E+00	-3.383E+02
    6.4000	 1.186E+01	-4.988E-02	 0.000E+00	-4.406E+00	 2.000E+00	 2.000E+00	-3.876E+02	 6.654E+02	-3.070E+02	 7.565E+00	-1.181E+01	-1.039E+03	 2.743E+01	 2.742E+01	-4.406E+00	 5.047E+00	 8.526E+00	 2.000E+00	-3.461E+02
    6.4500	 1.188E+01	-6.394E-02	 0.000E+00	-4.504E+00	 2.000E+00	 2.000E+00	-3.962E+02	 6.656E+02	-3.140E+02	 7.567E+00	-1.178E+01	-1.036E+03	 2.609E+01	 2.609E+01	-4.504E+00	 5.062E+00	 8.526E+00	 2.000E+00	-3.538E+02
    6.5000	 1.189E+01	-7.804E-02	 0.000E+00	-4.602E+00	 2.000E+00	 2.000E+00	-4.049E+02	 6.658E+02	-3.209E+02	 7.569E+00	-1.176E+01	-1.034E+03	 2.473E+01	 2.472E+01	-4.602E+00	 5.076E+00	 8.526E+00	 2.000E+00	-3.615E+02
    6.5500	 1.191E+01	-9.522E-02	 0.000E+00	-4.700E+00	 2.000E+00	 2.000E+00	-4.135E+02	 6.658E+02	-3.277E+02	 7.569E+00	-1.175E+01	-1.034E+03	 2.333E+01	 2.333E+01	-4.700E+00	 5.089E+00	 8.526E+00	 2.000E+00	-3.692E+02
    6.6000	 1.193E+01	-1.125E-01	 0.000E+00	-4.798E+00	 2.000E+00	 2.000E+00	-4.221E+02	 6.659E+02	-3.346E+02	 7.570E+00	-1.175E+01	-1.033E+03	 2.191E+01	 2.190E+01	-4.798E+00	 5.097E+00	 8.526E+00	 2.000E+00	-3.769E+02
    6.6500	 1.196E+01	-1.330E-01	 0.000E+00	-4.896E+00	 2.000E+00	 2.000E+00	-4.307E+02	 6.660E+02	-3.415E+02	 7.571E+00	-1.173E+01	-1.032E+03	 2.045E+01	 2.045E+01	-4.896E+00	 5.103E+00	 8.526E+00	 2.000E+00	-3.845E+02
    6.7000	 1.198E+01	-1.537E-01	 0.000E+00	-4.994E+00	 2.000E+00	 2.000E+00	-4.393E+02	 6.662E+02	-3.484E+02	 7.574E+00	-1.170E+01	-1.029E+03	 1.897E+01	 1.896E+01	-4.994E+00	 5.107E+00	 8.526E+00	 2.000E+00	-3.922E+02
    6.7500	 1.201E+01	-1.774E-01	 0.000E+00	-5.091E+00	 2.000E+00	 2.000E+00	-4.478E+02	 6.664E+02	-3.553E+02	 7.575E+00	-1.168E+01	-1.027E+03	 1.746E+01	 1.745E+01	-5.091E+00	 5.115E+00	 8.526E+00	 2.000E+00	-3.999E+02
    6.8000	 1.203E+01	-2.012E-01	 0.000E+00	-5.188E+00	 2.000E+00	 2.000E+00	-4.564E+02	 6.664E+02	-3.621E+02	 7.576E+00	-1.167E+01	-1.027E+03	 1.592E+01	 1.591E+01	-5.188E+00	 5.128E+00	 8.526E+00	 2.000E+00	-4.075E+02
    6.8500	 1.206E+01	-2.284E-01	 0.000E+00	-5.286E+00	 2.000E+00	 2.000E+00	-4.650E+02	 6.664E+02	-3.688E+02	 7.575E+00	-1.168E+01	-1.027E+03	 1.434E+01	 1.434E+01	-5.286E+00	 5.151E+00	 8.526E+00	 2.000E+00	-4.151E+02
    6.9000	 1.210E+01	-2.557E-01	 0.000E+00	-5.383E+00	 2.000E+00	 2.000E+00	-4.735E+02	 6.664E+02	-3.757E+02	 7.576E+00	-1.167E+01	-1.026E+03	 1.274E+01	 1.274E+01	-5.383E+00	 5.182E+00	 8.526E+00	 2.000E+00	-4.228E+02
    6.9500	 1.213E+01	-2.863E-01	 0.000E+00	-5.480E+00	 2.000E+00	 2.000E+00	-4.821E+02	 6.666E+02	-3.826E+02	 7.578E+00	-1.164E+01	-1.024E+03	 1.112E+01	 1.111E+01	-5.480E+00	 5.222E+00	 8.526E+00	 2.000E+00	-4.304E+02
    7.0000	 1.216E+01	-3.170E-01	 0.000E+00	-5.577E+00	 2.000E+00	 2.000E+00	-4.906E+02	 6.668E+02	-3.894E+02	 7.580E+00	-1.161E+01	-1.022E+03	 9.457E+00	 9.450E+00	-5.577E+00	 5.266E+00	 8.526E+00	 2.000E+00	-4.380E+02
    7.0500	 1.220E+01	-3.511E-01	 0.000E+00	-5.674E+00	 2.000E+00	 2.000E+00	-4.991E+02	 6.669E+02	-3.963E+02	 7.582E+00	-1.160E+01	-1.020E+03	 7.769E+00	 7.762E+00	-5.674E+00	 5.316E+00	 8.526E+00	 2.000E+00	-4.456E+02
    7.1000	 1.224E+01	-3.854E-01	 0.000E+00	-5.770E+00	 2.000E+00	 2.000E+00	-5.076E+02	 6.670E+02	-4.030E+02	 7.582E+00	-1.159E+01	-1.020E+03	 6.052E+00	 6.046E+00	-5.770E+00	 5.366E+00	 8.526E+00	 2.000E+00	-4.532E+02
    7.1500	 1.228E+01	-4.230E-01	 0.000E+00	-5.867E+00	 2.000E+00	 2.000E+00	-5.161E+02	 6.670E+02	-4.098E+02	 7.583E+00	-1.159E+01	-1.019E+03	 4.307E+00	 4.300E+00	-5.867E+00	 5.422E+00	 8.526E+00	 2.000E+00	-4.608E+02
    7.2000	 1.232E+01	-4.607E-01	 0.000E+00	-5.963E+00	 2.000E+00	 2.000E+00	-5.246E+02	 6.671E+02	-4.166E+02	 7.584E+00	-1.157E+01	-1.018E+03	 2.532E+00	 2.525E+00	-5.963E+00	 5.480E+00	 8.526E+00	 2.000E+00	-4.684E+02
    7.2500	 1.236E+01	-5.020E-01	 0.000E+00	-6.060E+00	 2.000E+00	 2.000E+00	-5.330E+02	 6.673E+02	-4.235E+02	 7.586E+00	-1.154E+01	-1.015E+03	 7.288E-01	 7.220E-01	-6.060E+00	 5.548E+00	 8.526E+00	 2.000E+00	-4.759E+02
    7.3000	 1.241E+01	-5.436E-01	 0.000E+00	-6.156E+00	 2.000E+00	 2.000E+00	-5.415E+02	 6.675E+02	-4.303E+02	 7.588E+00	-1.152E+01	-1.013E+03	 3.589E+02	 3.589E+02	-6.156E+00	 5.625E+00	 8.526E+00	 2.000E+00	-4.835E+02
    7.3500	 1.245E+01	-5.886E-01	 0.000E+00	-6.252E+00	 2.000E+00	 2.000E+00	-5.499E+02	 6.677E+02	-4.371E+02	 7.590E+00	-1.149E+01	-1.011E+03	 3.570E+02	 3.570E+02	-6.252E+00	 5.717E+00	 8.526E+00	 2.000E+00	-4.910E+02
    7.4000	 1.250E+01	-6.340E-01	 0.000E+00	-6.347E+00	 2.000E+00	 2.000E+00	-5.583E+02	 6.678E+02	-4.439E+02	 7.591E+00	-1.148E+01	-1.010E+03	 3.551E+02	 3.551E+02	-6.347E+00	 5.818E+00	 8.526E+00	 2.000E+00	-4.985E+02
    7.4500	 1.255E+01	-6.827E-01	 0.000E+00	-6.443E+00	 2.000E+00	 2.000E+00	-5.668E+02	 6.679E+02	-4.506E+02	 7.593E+00	-1.146E+01	-1.008E+03	 3.532E+02	 3.532E+02	-6.443E+00	 5.932E+00	 8.526E+00	 2.000E+00	-5.060E+02
    7.5000	 1.260E+01	-7.318E-01	 0.000E+00	-6.538E+00	 2.000E+00	 2.000E+00	-5.751E+02	 6.681E+02	-4.574E+02	 7.595E+00	-1.144E+01	-1.006E+03	 3.513E+02	 3.513E+02	-6.538E+00	 6.052E+00	 8.526E+00	 2.000E+00	-5.135E+02
    7.5500	 1.265E+01	-7.846E-01	 0.000E+00	-6.634E+00	 2.000E+00	 2.000E+00	-5.835E+02	 6.682E+02	-4.642E+02	 7.596E+00	-1.142E+01	-1.004E+03	 3.493E+02	 3.493E+02	-6.634E+00	 6.184E+00	 8.526E+00	 2.000E+00	-5.210E+02
    7.6000	 1.270E+01	-8.378E-01	 0.000E+00	-6.729E+00	 2.000E+00	 2.000E+00	-5.919E+02	 6.683E+02	-4.709E+02	 7.598E+00	-1.140E+01	-1.003E+03	 3.473E+02	 3.473E+02	-6.729E+00	 6.319E+00	 8.526E+00	 2.000E+00	-5.285E+02
    7.6500	 1.275E+01	-8.945E-01	 0.000E+00	-6.824E+00	 2.000E+00	 2.000E+00	-6.002E+02	 6.685E+02	-4.777E+02	 7.599E+00	-1.138E+01	-1.001E+03	 3.453E+02	 3.453E+02	-6.824E+00	 6.467E+00	 8.526E+00	 2.000E+00	-5.359E+02
    7.7000	 1.281E+01	-9.516E-01	 0.000E+00	-6.918E+00	 2.000E+00	 2.000E+00	-6.086E+02	 6.686E+02	-4.844E+02	 7.601E+00	-1.136E+01	-9.991E+02	 3.432E+02	 3.432E+02	-6.918E+00	 6.619E+00	 8.526E+00	 2.000E+00	-5.434E+02
    7.7500	 1.287E+01	-1.012E+00	 0.000E+00	-7.013E+00	 2.000E+00	 2.000E+00	-6.169E+02	 6.688E+02	-4.912E+02	 7.604E+00	-1.133E+01	-9.967E+02	 3.411E+02	 3.411E+02	-7.013E+00	 6.785E+00	 8.526E+00	 2.000E+00	-5.508E+02
    7.8000	 1.292E+01	-1.074E+00	 0.000E+00	-7.107E+00	 2.000E+00	 2.000E+00	-6.252E+02	 6.690E+02	-4.979E+02	 7.605E+00	-1.131E+01	-9.947E+02	 3.390E+02	 3.390E+02	-7.107E+00	 6.958E+00	 8.526E+00	 2.000E+00	-5.582E+02
    7.8500	 1.298E+01	-1.139E+00	 0.000E+00	-7.201E+00	 2.000E+00	 2.000E+00	-6.335E+02	 6.691E+02	-5.046E+02	 7.607E+00	-1.129E+01	-9.932E+02	 3.369E+02	 3.368E+02	-7.201E+00	 7.147E+00	 8.526E+00	 2.000E+00	-5.656E+02
    7.9000	 1.304E+01	-1.204E+00	 0.000E+00	-7.295E+00	 2.000E+00	 2.000E+00	-6.417E+02	 6.693E+02	-5.113E+02	 7.608E+00	-1.127E+01	-9.917E+02	 3.347E+02	 3.347E+02	-7.295E+00	 7.343E+00	 8.526E+00	 2.000E+00	-5.730E+02
    7.9500	 1.310E+01	-1.274E+00	 0.000E+00	-7.389E+00	 2.000E+00	 2.000E+00	-6.500E+02	 6.694E+02	-5.180E+02	 7.610E+00	-1.125E+01	-9.895E+02	 3.325E+02	 3.325E+02	-7.389E+00	 7.552E+00	 8.526E+00	 2.000E+00	-5.803E+02
    8.0000	 1.316E+01	-1.343E+00	 0.000E+00	-7.483E+00	 2.000E+00	 2.000E+00	-6.582E+02	 6.697E+02	-5.247E+02	 7.613E+00	-1.122E+01	-9.867E+02	 3.302E+02	 3.302E+02	-7.483E+00	 7.765E+00	 8.526E+00	 2.000E+00	-5.877E+02
    8.0500	 1.323E+01	-1.417E+00	 0.000E+00	-7.576E+00	 2.000E+00	 2.000E+00	-6.664E+02	 6.699E+02	-5.315E+02	 7.615E+00	-1.118E+01	-9.838E+02	 3.280E+02	 3.280E+02	-7.576E+00	 7.991E+00	 8.526E+00	 2.000E+00	-5.950E+02
    8.1000	 1.329E+01	-1.491E+00	 0.000E+00	-7.669E+00	 2.000E+00	 2.000E+00	-6.746E+02	 6.701E+02	-5.382E+02	 7.618E+00	-1.116E+01	-9.816E+02	 3.257E+02	 3.257E+02	-7.669E+00	 8.219E+00	 8.526E+00	 2.000E+00	-6.023E+02
    8.1500	 1.336E+01	-1.569E+00	 0.000E+00	-7.762E+00	 2.000E+00	 2.000E+00	-6.828E+02	 6.702E+02	-5.448E+02	 7.619E+00	-1.114E+01	-9.798E+02	 3.234E+02	 3.234E+02	-7.762E+00	 8.459E+00	 8.526E+00	 2.000E+00	-6.096E+02
    8.2000	 1.342E+01	-1.648E+00	 0.000E+00	-7.855E+00	 2.000E+00	 2.000E+00	-6.910E+02	 6.703E+02	-5.514E+02	 7.620E+00	-1.112E+01	-9.786E+02	 3.210E+02	 3.210E+02	-7.855E+00	 8.702E+00	 8.526E+00	 2.000E+00	-6.169E+02
    8.2500	 1.349E+01	-1.731E+00	 0.000E+00	-7.947E+00	 2.000E+00	 2.000E+00	-6.991E+02	 6.706E+02	-5.581E+02	 7.623E+00	-1.109E+01	-9.753E+02	 3.187E+02	 3.187E+02	-7.947E+00	 8.959E+00	 8.526E+00	 2.000E+00	-6.242E+02
    8.3000	 1.355E+01	-1.814E+00	 0.000E+00	-8.040E+00	 2.000E+00	 2.000E+00	-7.072E+02	 6.708E+02	-5.648E+02	 7.626E+00	-1.105E+01	-9.721E+02	 3.163E+02	 3.163E+02	-8.040E+00	 9.220E+00	 8.526E+00	 2.000E+00	-6.314E+02
    8.3500	 1.362E+01	-1.901E+00	 0.000E+00	-8.132E+00	 2.000E+00	 2.000E+00	-7.153E+02	 6.710E+02	-5.714E+02	 7.628E+00	-1.102E+01	-9.698E+02	 3.138E+02	 3.138E+02	-8.132E+00	 9.494E+00	 8.526E+00	 2.000E+00	-6.387E+02
    8.4000	 1.369E+01	-1.989E+00	 0.000E+00	-8.223E+00	 2.000E+00	 2.000E+00	-7.234E+02	 6.712E+02	-5.780E+02	 7.630E+00	-1.100E+01	-9.678E+02	 3.114E+02	 3.114E+02	-8.223E+00	 9.771E+00	 8.526E+00	 2.000E+00	-6.459E+02
    8.4500	 1.376E+01	-2.081E+00	 0.000E+00	-8.315E+00	 2.000E+00	 2.000E+00	-7.314E+02	 6.714E+02	-5.846E+02	 7.633E+00	-1.097E+01	-9.654E+02	 3.089E+02	 3.089E+02	-8.315E+00	 1.006E+01	 8.526E+00	 2.000E+00	-6.531E+02
    8.5000	 1.383E+01	-2.174E+00	 0.000E+00	-8.406E+00	 2.000E+00	 2.000E+00	-7.395E+02	 6.717E+02	-5.913E+02	 7.635E+00	-1.094E+01	-9.622E+02	 3.064E+02	 3.064E+02	-8.406E+00	 1.035E+01	 8.526E+00	 2.000E+00	-6.602E+02
    8.5500	 1.390E+01	-2.271E+00	 0.000E+00	-8.497E+00	 2.000E+00	 2.000E+00	-7.475E+02	 6.719E+02	-5.979E+02	 7.638E+00	-1.090E+01	-9.591E+02	 3.039E+02	 3.039E+02	-8.497E+00	 1.065E+01	 8.526E+00	 2.000E+00	-6.674E+02
    8.6000	 1.397E+01	-2.368E+00	 0.000E+00	-8.588E+00	 2.000E+00	 2.000E+00	-7.555E+02	 6.721E+02	-6.044E+02	 7.640E+00	-1.088E+01	-9.568E+02	 3.013E+02	 3.013E+02	-8.588E+00	 1.095E+01	 8.526E+00	 2.000E+00	-6.745E+02
    8.6500	 1.404E+01	-2.470E+00	 0.000E+00	-8.679E+00	 2.000E+00	 2.000E+00	-7.634E+02	 6.723E+02	-6.110E+02	 7.642E+00	-1.085E+01	-9.547E+02	 2.987E+02	 2.987E+02	-8.679E+00	 1.126E+01	 8.526E+00	 2.000E+00	-6.816E+02
    8.7000	 1.411E+01	-2.572E+00	 0.000E+00	-8.769E+00	 2.000E+00	 2.000E+00	-7.714E+02	 6.725E+02	-6.175E+02	 7.645E+00	-1.082E+01	-9.521E+02	 2.961E+02	 2.961E+02	-8.769E+00	 1.158E+01	 8.526E+00	 2.000E+00	-6.887E+02
    8.7500	 1.418E+01	-2.678E+00	 0.000E+00	-8.859E+00	 2.000E+00	 2.000E+00	-7.793E+02	 6.728E+02	-6.241E+02	 7.648E+00	-1.078E+01	-9.487E+02	 2.935E+02	 2.934E+02	-8.859E+00	 1.191E+01	 8.526E+00	 2.000E+00	-6.958E+02
    8.8000	 1.425E+01	-2.786E+00	 0.000E+00	-8.949E+00	 2.000E+00	 2.000E+00	-7.872E+02	 6.730E+02	-6.307E+02	 7.651E+00	-1.075E+01	-9.452E+02	 2.908E+02	 2.908E+02	-8.949E+00	 1.224E+01	 8.526E+00	 2.000E+00	-7.028E+02
    8.8500	 1.432E+01	-2.897E+00	 0.000E+00	-9.038E+00	 2.000E+00	 2.000E+00	-7.950E+02	 6.733E+02	-6.372E+02	 7.654E+00	-1.071E+01	-9.423E+02	 2.881E+02	 2.881E+02	-9.038E+00	 1.258E+01	 8.526E+00	 2.000E+00	-7.099E+02
    8.9000	 1.439E+01	-3.009E+00	 0.000E+00	-9.127E+00	 2.000E+00	 2.000E+00	-8.029E+02	 6.735E+02	-6.437E+02	 7.656E+00	-1.068E+01	-9.399E+02	 2.854E+02	 2.854E+02	-9.127E+00	 1.292E+01	 8.526E+00	 2.000E+00	-7.169E+02
    8.9500	 1.446E+01	-3.125E+00	 0.000E+00	-9.216E+00	 2.000E+00	 2.000E+00	-8.107E+02	 6.737E+02	-6.502E+02	 7.659E+00	-1.065E+01	-9.372E+02	 2.826E+02	 2.826E+02	-9.216E+00	 1.327E+01	 8.526E+00	 2.000E+00	-7.238E+02
    9.0000	 1.453E+01	-3.243E+00	 0.000E+00	-9.305E+00	 2.000E+00	 2.000E+00	-8.185E+02	 6.740E+02	-6.567E+02	 7.662E+00	-1.062E+01	-9.340E+02	 2.798E+02	 2.798E+02	-9.305E+00	 1.362E+01	 8.526E+00	 2.000E+00	-7.308E+02
    9.0500	 1.461E+01	-3.363E+00	 0.000E+00	-9.393E+00	 2.000E+00	 2.000E+00	-8.263E+02	 6.742E+02	-6.632E+02	 7.665E+00	-1.057E+01	-9.304E+02	 2.770E+02	 2.770E+02	-9.393E+00	 1.398E+01	 8.526E+00	 2.000E+00	-7.377E+02
    9.1000	 1.468E+01	-3.485E+00	 0.000E+00	-9.481E+00	 2.000E+00	 2.000E+00	-8.340E+02	 6.745E+02	-6.697E+02	 7.668E+00	-1.054E+01	-9.272E+02	 2.742E+02	 2.742E+02	-9.481E+00	 1.435E+01	 8.526E+00	 2.000E+00	-7.446E+02
    9.1500	 1.475E+01	-3.611E+00	 0.000E+00	-9.569E+00	 2.000E+00	 2.000E+00	-8.417E+02	 6.747E+02	-6.761E+02	 7.671E+00	-1.051E+01	-9.243E+02	 2.713E+02	 2.713E+02	-9.569E+00	 1.472E+01	 8.526E+00	 2.000E+00	-7.515E+02
    9.2000	 1.482E+01	-3.738E+00	 0.000E+00	-9.656E+00	 2.000E+00	 2.000E+00	-8.494E+02	 6.750E+02	-6.825E+02	 7.673E+00	-1.047E+01	-9.212E+02	 2.685E+02	 2.684E+02	-9.656E+00	 1.509E+01	 8.526E+00	 2.000E+00	-7.584E+02
    9.2500	 1.489E+01	-3.869E+00	 0.000E+00	-9.743E+00	 2.000E+00	 2.000E+00	-8.571E+02	 6.753E+02	-6.890E+02	 7.676E+00	-1.043E+01	-9.179E+02	 2.655E+02	 2.655E+02	-9.743E+00	 1.548E+01	 8.526E+00	 2.000E+00	-7.652E+02
    9.3000	 1.496E+01	-4.001E+00	 0.000E+00	-9.830E+00	 2.000E+00	 2.000E+00	-8.647E+02	 6.755E+02	-6.954E+02	 7.679E+00	-1.040E+01	-9.149E+02	 2.626E+02	 2.626E+02	-9.830E+00	 1.586E+01	 8.526E+00	 2.000E+00	-7.721E+02
    9.3500	 1.503E+01	-4.137E+00	 0.000E+00	-9.917E+00	 2.000E+00	 2.000E+00	-8.723E+02	 6.757E+02	-7.017E+02	 7.682E+00	-1.037E+01	-9.120E+02	 2.596E+02	 2.596E+02	-9.917E+00	 1.626E+01	 8.526E+00	 2.000E+00	-7.789E+02
    9.4000	 1.509E+01	-4.274E+00	 0.000E+00	-1.000E+01	 2.000E+00	 2.000E+00	-8.799E+02	 6.760E+02	-7.081E+02	 7.685E+00	-1.033E+01	-9.091E+02	 2.567E+02	 2.567E+02	-1.000E+01	 1.666E+01	 8.526E+00	 2.000E+00	-7.856E+02
    9.4500	 1.516E+01	-4.415E+00	 0.000E+00	-1.009E+01	 2.000E+00	 2.000E+00	-8.875E+02	 6.763E+02	-7.145E+02	 7.688E+00	-1.030E+01	-9.057E+02	 2.536E+02	 2.536E+02	-1.009E+01	 1.706E+01	 8.526E+00	 2.000E+00	-7.924E+02
    9.5000	 1.523E+01	-4.556E+00	 0.000E+00	-1.017E+01	 2.000E+00	 2.000E+00	-8.950E+02	 6.765E+02	-7.208E+02	 7.691E+00	-1.026E+01	-9.024E+02	 2.506E+02	 2.506E+02	-1.017E+01	 1.747E+01	 8.526E+00	 2.000E+00	-7.991E+02
    9.5500	 1.529E+01	-4.702E+00	 0.000E+00	-1.026E+01	 2.000E+00	 2.000E+00	-9.025E+02	 6.768E+02	-7.271E+02	 7.694E+00	-1.023E+01	-8.995E+02	 2.475E+02	 2.475E+02	-1.026E+01	 1.788E+01	 8.526E+00	 2.000E+00	-8.058E+02
    9.6000	 1.536E+01	-4.849E+00	 0.000E+00	-1.034E+01	 2.000E+00	 2.000E+00	-9.100E+02	 6.770E+02	-7.334E+02	 7.696E+00	-1.020E+01	-8.970E+02	 2.444E+02	 2.444E+02	-1.034E+01	 1.830E+01	 8.526E+00	 2.000E+00	-8.125E+02
    9.6500	 1.542E+01	-4.998E+00	 0.000E+00	-1.043E+01	 2.000E+00	 2.000E+00	-9.175E+02	 6.772E+02	-7.396E+02	 7.698E+00	-1.017E+01	-8.943E+02	 2.413E+02	 2.413E+02	-1.043E+01	 1.872E+01	 8.526E+00	 2.000E+00	-8.192E+02
    9.7000	 1.549E+01	-5.150E+00	 0.000E+00	-1.051E+01	 2.000E+00	 2.000E+00	-9.249E+02	 6.774E+02	-7.459E+02	 7.701E+00	-1.013E+01	-8.914E+02	 2.382E+02	 2.382E+02	-1.051E+01	 1.915E+01	 8.526E+00	 2.000E+00	-8.258E+02
    9.7500	 1.555E+01	-5.304E+00	 0.000E+00	-1.060E+01	 2.000E+00	 2.000E+00	-9.323E+02	 6.777E+02	-7.521E+02	 7.704E+00	-1.010E+01	-8.883E+02	 2.350E+02	 2.350E+02	-1.060E+01	 1.958E+01	 8.526E+00	 2.000E+00	-8.324E+02
    9.8000	 1.561E+01	-5.460E+00	 0.000E+00	-1.068E+01	 2.000E+00	 2.000E+00	-9.397E+02	 6.779E+02	-7.583E+02	 7.706E+00	-1.007E+01	-8.856E+02	 2.318E+02	 2.318E+02	-1.068E+01	 2.001E+01	 8.526E+00	 2.000E+00	-8.390E+02
    9.8500	 1.567E+01	-5.619E+00	 0.000E+00	-1.077E+01	 2.000E+00	 2.000E+00	-9.471E+02	 6.781E+02	-7.645E+02	 7.709E+00	-1.004E+01	-8.832E+02	 2.286E+02	 2.286E+02	-1.077E+01	 2.045E+01	 8.526E+00	 2.000E+00	-8.456E+02
    9.9000	 1.573E+01	-5.780E+00	 0.000E+00	-1.085E+01	 2.000E+00	 2.000E+00	-9.544E+02	 6.783E+02	-7.707E+02	 7.711E+00	-1.001E+01	-8.809E+02	 2.254E+02	 2.254E+02	-1.085E+01	 2.089E+01	 8.526E+00	 2.000E+00	-8.522E+02
    9.9500	 1.579E+01	-5.943E+00	 0.000E+00	-1.093E+01	 2.000E+00	 2.000E+00	-9.618E+02	 6.785E+02	-7.768E+02	 7.713E+00	-9.999E+00	-8.787E+02	 2.221E+02	 2.221E+02	-1.093E+01	 2.134E+01	 8.526E+00	 2.000E+00	-8.587E+02
   10.0000	 1.585E+01	-6.108E+00	 0.000E+00	-1.102E+01	 2.000E+00	 2.000E+00	-9.691E+02	 6.787E+02	-7.830E+02	 7.716E+00	-9.946E+00	-8.750E+02	 2.188E+02	 2.188E+02	-1.102E+01	 2.179E+01	 8.526E+00	 2.000E+00	-8.652E+02
   10.0500	 1.590E+01	-6.276E+00	 0.000E+00	-1.110E+01	 2.000E+00	 2.000E+00	-9.763E+02	 6.790E+02	-7.892E+02	 7.719E+00	-9.913E+00	-8.721E+02	 2.155E+02	 2.155E+02	-1.110E+01	 2.224E+01	 8.526E+00	 2.000E+00	-8.717E+02
   10.1000	 1.596E+01	-6.445E+00	 0.000E+00	-1.118E+01	 2.000E+00	 2.000E+00	-9.836E+02	 6.791E+02	-7.952E+02	 7.720E+00	-9.902E+00	-8.711E+02	 2.122E+02	 2.121E+02	-1.118E+01	 2.269E+01	 8.526E+00	 2.000E+00	-8.782E+02
   10.1500	 1.601E+01	-6.617E+00	 0.000E+00	-1.126E+01	 2.000E+00	 2.000E+00	-9.909E+02	 6.792E+02	-8.012E+02	 7.721E+00	-9.885E+00	-8.696E+02	 2.088E+02	 2.088E+02	-1.126E+01	 2.315E+01	 8.526E+00	 2.000E+00	-8.847E+02
   10.2000	 1.606E+01	-6.790E+00	 0.000E+00	-1.135E+01	 2.000E+00	 2.000E+00	-9.981E+02	 6.795E+02	-8.074E+02	 7.725E+00	-9.842E+00	-8.658E+02	 2.054E+02	 2.054E+02	-1.135E+01	 2.361E+01	 8.526E+00	 2.000E+00	-8.912E+02
   10.2500	 1.611E+01	-6.966E+00	 0.000E+00	-1.143E+01	 2.000E+00	 2.000E+00	-1.005E+03	 6.799E+02	-8.137E+02	 7.729E+00	-9.786E+00	-8.608E+02	 2.020E+02	 2.020E+02	-1.143E+01	 2.407E+01	 8.526E+00	 2.000E+00	-8.976E+02
   10.3000	 1.616E+01	-7.143E+00	 0.000E+00	-1.151E+01	 2.000E+00	 2.000E+00	-1.012E+03	 6.802E+02	-8.198E+02	 7.732E+00	-9.747E+00	-8.574E+02	 1.985E+02	 1.985E+02	-1.151E+01	 2.453E+01	 8.526E+00	 2.000E+00	-9.040E+02
   10.3500	 1.620E+01	-7.323E+00	 0.000E+00	-1.159E+01	 2.000E+00	 2.000E+00	-1.020E+03	 6.803E+02	-8.257E+02	 7.734E+00	-9.732E+00	-8.561E+02	 1.951E+02	 1.951E+02	-1.159E+01	 2.500E+01	 8.526E+00	 2.000E+00	-9.103E+02
   10.4000	 1.625E+01	-7.504E+00	 0.000E+00	-1.167E+01	 2.000E+00	 2.000E+00	-1.027E+03	 6.804E+02	-8.316E+02	 7.735E+00	-9.718E+00	-8.549E+02	 1.916E+02	 1.916E+02	-1.167E+01	 2.546E+01	 8.526E+00	 2.000E+00	-9.167E+02
   10.4500	 1.629E+01	-7.687E+00	 0.000E+00	-1.175E+01	 2.000E+00	 2.000E+00	-1.034E+03	 6.806E+02	-8.377E+02	 7.738E+00	-9.683E+00	-8.518E+02	 1.881E+02	 1.881E+02	-1.175E+01	 2.593E+01	 8.526E+00	 2.000E+00	-9.231E+02
   10.5000	 1.633E+01	-7.871E+00	 0.000E+00	-1.183E+01	 2.000E+00	 2.000E+00	-1.041E+03	 6.810E+02	-8.439E+02	 7.742E+00	-9.633E+00	-8.473E+02	 1.845E+02	 1.845E+02	-1.183E+01	 2.639E+01	 8.526E+00	 2.000E+00	-9.294E+02
   10.5500	 1.637E+01	-8.058E+00	 0.000E+00	-1.191E+01	 2.000E+00	 2.000E+00	-1.048E+03	 6.813E+02	-8.500E+02	 7.745E+00	-9.590E+00	-8.436E+02	 1.810E+02	 1.810E+02	-1.191E+01	 2.686E+01	 8.526E+00	 2.000E+00	-9.357E+02
   10.6000	 1.640E+01	-8.245E+00	 0.000E+00	-1.199E+01	 2.000E+00	 2.000E+00	-1.055E+03	 6.815E+02	-8.559E+02	 7.747E+00	-9.567E+00	-8.415E+02	 1.774E+02	 1.774E+02	-1.199E+01	 2.733E+01	 8.526E+00	 2.000E+00	-9.419E+02
   10.6500	 1.644E+01	-8.435E+00	 0.000E+00	-1.207E+01	 2.000E+00	 2.000E+00	-1.062E+03	 6.816E+02	-8.617E+02	 7.749E+00	-9.548E+00	-8.400E+02	 1.738E+02	 1.738E+02	-1.207E+01	 2.780E+01	 8.526E+00	 2.000E+00	-9.482E+02
   10.7000	 1.647E+01	-8.625E+00	 0.000E+00	-1.215E+01	 2.000E+00	 2.000E+00	-1.069E+03	 6.818E+02	-8.677E+02	 7.751E+00	-9.519E+00	-8.374E+02	 1.701E+02	 1.701E+02	-1.215E+01	 2.826E+01	 8.526E+00	 2.000E+00	-9.544E+02
   10.7500	 1.650E+01	-8.818E+00	 0.000E+00	-1.223E+01	 2.000E+00	 2.000E+00	-1.076E+03	 6.821E+02	-8.737E+02	 7.754E+00	-9.479E+00	-8.337E+02	 1.665E+02	 1.665E+02	-1.223E+01	 2.873E+01	 8.526E+00	 2.000E+00	-9.607E+02
   10.8000	 1.653E+01	-9.011E+00	 0.000E+00	-1.231E+01	 2.000E+00	 2.000E+00	-1.083E+03	 6.823E+02	-8.796E+02	 7.757E+00	-9.446E+00	-8.309E+02	 1.628E+02	 1.628E+02	-1.231E+01	 2.920E+01	 8.526E+00	 2.000E+00	-9.668E+02
   10.8500	 1.656E+01	-9.206E+00	 0.000E+00	-1.239E+01	 2.000E+00	 2.000E+00	-1.090E+03	 6.825E+02	-8.855E+02	 7.759E+00	-9.423E+00	-8.289E+02	 1.591E+02	 1.591E+02	-1.239E+01	 2.967E+01	 8.526E+00	 2.000E+00	-9.730E+02
   10.9000	 1.658E+01	-9.402E+00	 0.000E+00	-1.247E+01	 2.000E+00	 2.000E+00	-1.097E+03	 6.826E+02	-8.912E+02	 7.760E+00	-9.404E+00	-8.273E+02	 1.554E+02	 1.554E+02	-1.247E+01	 3.014E+01	 8.526E+00	 2.000E+00	-9.792E+02
   10.9500	 1.661E+01	-9.599E+00	 0.000E+00	-1.255E+01	 2.000E+00	 2.000E+00	-1.104E+03	 6.828E+02	-8.970E+02	 7.762E+00	-9.387E+00	-8.257E+02	 1.516E+02	 1.516E+02	-1.255E+01	 3.060E+01	 8.526E+00	 2.000E+00	-9.853E+02
   11.0000	 1.663E+01	-9.798E+00	 0.000E+00	-1.262E+01	 2.000E+00	 2.000E+00	-1.110E+03	 6.829E+02	-9.028E+02	 7.764E+00	-9.365E+00	-8.238E+02	 1.478E+02	 1.478E+02	-1.262E+01	 3.107E+01	 8.526E+00	 2.000E+00	-9.915E+02
   11.0500	 1.665E+01	-9.997E+00	 0.000E+00	-1.270E+01	 2.000E+00	 2.000E+00	-1.117E+03	 6.830E+02	-9.085E+02	 7.764E+00	-9.357E+00	-8.230E+02	 1.440E+02	 1.440E+02	-1.270E+01	 3.153E+01	 8.526E+00	 2.000E+00	-9.976E+02
   11.1000	 1.666E+01	-1.020E+01	 0.000E+00	-1.278E+01	 2.000E+00	 2.000E+00	-1.124E+03	 6.830E+02	-9.141E+02	 7.765E+00	-9.351E+00	-8.226E+02	 1.402E+02	 1.402E+02	-1.278E+01	 3.200E+01	 8.526E+00	 2.000E+00	-1.004E+03
   11.1500	 1.668E+01	-1.040E+01	 0.000E+00	-1.286E+01	 2.000E+00	 2.000E+00	-1.131E+03	 6.830E+02	-9.197E+02	 7.765E+00	-9.350E+00	-8.225E+02	 1.364E+02	 1.364E+02	-1.286E+01	 3.246E+01	 8.526E+00	 2.000E+00	-1.010E+03
   11.2000	 1.669E+01	-1.060E+01	 0.000E+00	-1.294E+01	 2.000E+00	 2.000E+00	-1.138E+03	 6.831E+02	-9.253E+02	 7.765E+00	-9.347E+00	-8.222E+02	 1.325E+02	 1.325E+02	-1.294E+01	 3.292E+01	 8.526E+00	 2.000E+00	-1.016E+03
   11.2500	 1.670E+01	-1.080E+01	 0.000E+00	-1.301E+01	 2.000E+00	 2.000E+00	-1.145E+03	 6.831E+02	-9.309E+02	 7.766E+00	-9.339E+00	-8.216E+02	 1.286E+02	 1.286E+02	-1.301E+01	 3.338E+01	 8.526E+00	 2.000E+00	-1.022E+03
   11.3000	 1.671E+01	-1.101E+01	 0.000E+00	-1.309E+01	 2.000E+00	 2.000E+00	-1.152E+03	 6.832E+02	-9.366E+02	 7.766E+00	-9.330E+00	-8.207E+02	 1.247E+02	 1.247E+02	-1.309E+01	 3.385E+01	 8.526E+00	 2.000E+00	-1.028E+03
   11.3500	 1.671E+01	-1.121E+01	 0.000E+00	-1.317E+01	 2.000E+00	 2.000E+00	-1.158E+03	 6.832E+02	-9.422E+02	 7.767E+00	-9.322E+00	-8.200E+02	 1.208E+02	 1.207E+02	-1.317E+01	 3.431E+01	 8.526E+00	 2.000E+00	-1.034E+03
   11.4000	 1.671E+01	-1.142E+01	 0.000E+00	-1.325E+01	 2.000E+00	 2.000E+00	-1.165E+03	 6.833E+02	-9.478E+02	 7.768E+00	-9.316E+00	-8.195E+02	 1.168E+02	 1.168E+02	-1.325E+01	 3.477E+01	 8.526E+00	 2.000E+00	-1.040E+03
   11.4500	 1.671E+01	-1.162E+01	 0.000E+00	-1.332E+01	 2.000E+00	 2.000E+00	-1.172E+03	 6.833E+02	-9.535E+02	 7.768E+00	-9.307E+00	-8.187E+02	 1.128E+02	 1.128E+02	-1.332E+01	 3.523E+01	 8.526E+00	 2.000E+00	-1.046E+03
   11.5000	 1.671E+01	-1.182E+01	 0.000E+00	-1.340E+01	 2.000E+00	 2.000E+00	-1.179E+03	 6.833E+02	-9.589E+02	 7.767E+00	-9.324E+00	-8.197E+02	 1.088E+02	 1.088E+02	-1.340E+01	 3.569E+01	 8.526E+00	 2.000E+00	-1.053E+03